 Entering Gaussian System, Link 0=g09
 Initial command:
 /system/software/linux-x86_64/gaussian/g09/A.02__pgi_8.0-6__acml/l1.exe /home/phys1470/counterpoise-py/job_files/znpc-f6tcnnq-translateZ-4/Gau-25330.inp -scrdir=/home/phys1470/counterpoise-py/job_files/znpc-f6tcnnq-translateZ-4/
 Entering Link 1 = /system/software/linux-x86_64/gaussian/g09/A.02__pgi_8.0-6__acml/l1.exe PID=     25331.
  
 Copyright (c) 1988,1990,1992,1993,1995,1998,2003,2009, Gaussian, Inc.
                  All Rights Reserved.
  
 This is part of the Gaussian(R) 09 program.  It is based on
 the Gaussian(R) 03 system (copyright 2003, Gaussian, Inc.),
 the Gaussian(R) 98 system (copyright 1998, Gaussian, Inc.),
 the Gaussian(R) 94 system (copyright 1995, Gaussian, Inc.),
 the Gaussian 92(TM) system (copyright 1992, Gaussian, Inc.),
 the Gaussian 90(TM) system (copyright 1990, Gaussian, Inc.),
 the Gaussian 88(TM) system (copyright 1988, Gaussian, Inc.),
 the Gaussian 86(TM) system (copyright 1986, Carnegie Mellon
 University), and the Gaussian 82(TM) system (copyright 1983,
 Carnegie Mellon University). Gaussian is a federally registered
 trademark of Gaussian, Inc.
  
 This software contains proprietary and confidential information,
 including trade secrets, belonging to Gaussian, Inc.
  
 This software is provided under written license and may be
 used, copied, transmitted, or stored only in accord with that
 written license.
  
 The following legend is applicable only to US Government
 contracts under FAR:
  
                    RESTRICTED RIGHTS LEGEND
  
 Use, reproduction and disclosure by the US Government is
 subject to restrictions as set forth in subparagraphs (a)
 and (c) of the Commercial Computer Software - Restricted
 Rights clause in FAR 52.227-19.
  
 Gaussian, Inc.
 340 Quinnipiac St., Bldg. 40, Wallingford CT 06492
  
  
 ---------------------------------------------------------------
 Warning -- This program may not be used in any manner that
 competes with the business of Gaussian, Inc. or will provide
 assistance to any competitor of Gaussian, Inc.  The licensee
 of this program is prohibited from giving any competitor of
 Gaussian, Inc. access to this program.  By using this program,
 the user acknowledges that Gaussian, Inc. is engaged in the
 business of creating and licensing software in the field of
 computational chemistry and represents and warrants to the
 licensee that it is not a competitor of Gaussian, Inc. and that
 it will not use this program in any manner prohibited above.
 ---------------------------------------------------------------
  

 Cite this work as:
 Gaussian 09, Revision A.02,
 M. J. Frisch, G. W. Trucks, H. B. Schlegel, G. E. Scuseria, 
 M. A. Robb, J. R. Cheeseman, G. Scalmani, V. Barone, B. Mennucci, 
 G. A. Petersson, H. Nakatsuji, M. Caricato, X. Li, H. P. Hratchian, 
 A. F. Izmaylov, J. Bloino, G. Zheng, J. L. Sonnenberg, M. Hada, 
 M. Ehara, K. Toyota, R. Fukuda, J. Hasegawa, M. Ishida, T. Nakajima, 
 Y. Honda, O. Kitao, H. Nakai, T. Vreven, J. A. Montgomery, Jr., 
 J. E. Peralta, F. Ogliaro, M. Bearpark, J. J. Heyd, E. Brothers, 
 K. N. Kudin, V. N. Staroverov, R. Kobayashi, J. Normand, 
 K. Raghavachari, A. Rendell, J. C. Burant, S. S. Iyengar, J. Tomasi, 
 M. Cossi, N. Rega, J. M. Millam, M. Klene, J. E. Knox, J. B. Cross, 
 V. Bakken, C. Adamo, J. Jaramillo, R. Gomperts, R. E. Stratmann, 
 O. Yazyev, A. J. Austin, R. Cammi, C. Pomelli, J. W. Ochterski, 
 R. L. Martin, K. Morokuma, V. G. Zakrzewski, G. A. Voth, 
 P. Salvador, J. J. Dannenberg, S. Dapprich, A. D. Daniels, 
 O. Farkas, J. B. Foresman, J. V. Ortiz, J. Cioslowski, 
 and D. J. Fox, Gaussian, Inc., Wallingford CT, 2009.
 
 ******************************************
 Gaussian 09:  EM64L-G09RevA.02 11-Jun-2009
                 8-Apr-2020 
 ******************************************
 %nprocshared=16
 Will use up to   16 processors via shared memory.
 %mem=14GB
 ----------------------------------------------------------------------
 #p SCF(Tight,Conver=8) Integral(Grid=UltraFine) IOp(6/7=3) b3lyp/6-31g
 * nosymm
 ----------------------------------------------------------------------
 1/38=1/1;
 2/12=2,15=1,17=6,18=5,40=1/2;
 3/5=1,6=6,7=1,11=2,16=1,25=1,30=1,74=-5,75=-5/1,2,3;
 4//1;
 5/5=2,6=8,32=2,38=5/2;
 6/7=3,8=2,9=2,10=2,28=1/1;
 99/5=1,9=1/99;
 Leave Link    1 at Wed Apr  8 17:52:54 2020, MaxMem= 1879048192 cpu:       1.1
 (Enter /system/software/linux-x86_64/gaussian/g09/A.02__pgi_8.0-6__acml/l101.exe)
 ------------------------------
 CP calculation part 3 - mol AB
 ------------------------------
 Symbolic Z-matrix:
 Charge =  0 Multiplicity = 1
 C                    -2.9988   -0.20479   3.99961 
 C                    -2.02084  -2.22493   3.9996 
 C                    -4.07731  -1.19064   3.9997 
 C                    -3.46306  -2.45933   3.99965 
 C                    -5.46552  -1.06464   3.99981 
 C                    -4.22486  -3.6265    3.99974 
 C                    -6.22375  -2.23217   3.99986 
 H                    -5.93133  -0.08667   3.99984 
 C                    -5.61105  -3.49748   3.99984 
 H                    -3.74626  -4.59825   3.99973 
 H                    -7.30607  -2.16843   3.99992 
 H                    -6.2322   -4.38611   3.99991 
 C                     2.22493  -2.02083   4.00003 
 C                     0.20479  -2.9988    3.99985 
 C                     2.45933  -3.46305   4.00037 
 C                     1.19064  -4.0773    4.00024 
 C                     3.6265   -4.22486   4.00075 
 C                     1.06464  -5.46551   4.00051 
 C                     3.49748  -5.61104   4.00102 
 H                     4.59825  -3.74625   4.00085 
 C                     2.23217  -6.22374   4.0009 
 H                     0.08668  -5.93134   4.0004 
 H                     4.38612  -6.23219   4.00131 
 H                     2.16844  -7.30607   4.00113 
 C                     2.02084   2.22493   3.99976 
 C                     2.9988    0.20479   3.99989 
 C                     3.46305   2.45933   3.99969 
 C                     4.0773    1.19064   3.9998 
 C                     4.22487   3.6265    3.99958 
 C                     5.46552   1.06463   3.99978 
 C                     5.61105   3.49747   3.99956 
 H                     3.74626   4.59825   3.99951 
 C                     6.22374   2.23217   3.99964 
 H                     5.93134   0.08667   3.99986 
 H                     6.2322    4.38611   3.99948 
 H                     7.30607   2.16843   3.9996 
 C                    -0.20479   2.99879   3.99982 
 C                    -2.22493   2.02084   3.99979 
 C                    -1.19064   4.0773    4.00026 
 C                    -2.45933   3.46305   4.00027 
 C                    -1.06464   5.46551   4.00069 
 C                    -3.6265    4.22486   4.00068 
 C                    -2.23217   6.22374   4.00112 
 H                    -0.08667   5.93133   4.00068 
 C                    -3.49748   5.61104   4.0011 
 H                    -4.59825   3.74626   4.00069 
 H                    -2.16843   7.30606   4.00147 
 H                    -4.38611   6.2322    4.00142 
 N                    -1.10993  -3.19261   3.99971 
 N                     1.10993   3.19261   3.99979 
 N                     3.19261  -1.10993   4.00005 
 N                    -3.19262   1.10993   3.99974 
 N                     0.87198  -1.80155   3.99968 
 N                     1.80155   0.87198   3.99992 
 N                    -1.80155  -0.87198   3.99956 
 N                    -0.87199   1.80155   3.99945 
 Zn                    0.        0.        3.99971 
 C                    -1.57983  -0.94688  0. 
 C                    -0.23086  -0.68868  -0.00001 
 C                     0.23086   0.68868  -0.00001 
 C                    -0.77769   1.71583  -0.00001 
 C                    -2.10055   1.42339  0. 
 C                     0.77769  -1.71583  -0.00001 
 C                     1.57983   0.94688  -0.00001 
 C                     2.10055  -1.42338  0. 
 C                     2.60158  -0.07192  0. 
 C                     3.96128   0.22694   0. 
 C                     4.4939    1.54853  -0.00002 
 C                     4.98697  -0.76282   0.00003 
 N                     5.02135   2.5777   -0.00004 
 N                     5.88658  -1.48943   0.00006 
 C                    -2.60158   0.07192   0. 
 C                    -3.96128  -0.22694   0.00001 
 C                    -4.4939   -1.54853  -0.00002 
 C                    -4.98697   0.76282   0.00004 
 N                    -5.02134  -2.57771  -0.00004 
 N                    -5.88658   1.48943   0.00007 
 F                     2.00261   2.20677   0. 
 F                     2.97148  -2.43067  -0.00001 
 F                     0.41497  -2.99475  -0.00001 
 F                    -0.41497   2.99475  -0.00001 
 F                    -2.97148   2.43067  -0.00001 
 F                    -2.00261  -2.20677   0. 
 
 NAtoms=     83 NQM=     83 NQMF=      0 NMic=      0 NMicF=      0 NTot=     83.
                    Isotopes and Nuclear Properties:
 (Nuclear quadrupole moments (NQMom) in fm**2, nuclear magnetic moments (NMagM)
  in nuclear magnetons)

  Atom         1           2           3           4           5           6           7           8           9          10
 IAtWgt=          12          12          12          12          12          12          12           1          12           1
 AtmWgt=  12.0000000  12.0000000  12.0000000  12.0000000  12.0000000  12.0000000  12.0000000   1.0078250  12.0000000   1.0078250
 NucSpn=           0           0           0           0           0           0           0           1           0           1
 AtZEff=   0.0000000   0.0000000   0.0000000   0.0000000   0.0000000   0.0000000   0.0000000   0.0000000   0.0000000   0.0000000
 NQMom=    0.0000000   0.0000000   0.0000000   0.0000000   0.0000000   0.0000000   0.0000000   0.0000000   0.0000000   0.0000000
 NMagM=    0.0000000   0.0000000   0.0000000   0.0000000   0.0000000   0.0000000   0.0000000   2.7928460   0.0000000   2.7928460

  Atom        11          12          13          14          15          16          17          18          19          20
 IAtWgt=           1           1          12          12          12          12          12          12          12           1
 AtmWgt=   1.0078250   1.0078250  12.0000000  12.0000000  12.0000000  12.0000000  12.0000000  12.0000000  12.0000000   1.0078250
 NucSpn=           1           1           0           0           0           0           0           0           0           1
 AtZEff=   0.0000000   0.0000000   0.0000000   0.0000000   0.0000000   0.0000000   0.0000000   0.0000000   0.0000000   0.0000000
 NQMom=    0.0000000   0.0000000   0.0000000   0.0000000   0.0000000   0.0000000   0.0000000   0.0000000   0.0000000   0.0000000
 NMagM=    2.7928460   2.7928460   0.0000000   0.0000000   0.0000000   0.0000000   0.0000000   0.0000000   0.0000000   2.7928460

  Atom        21          22          23          24          25          26          27          28          29          30
 IAtWgt=          12           1           1           1          12          12          12          12          12          12
 AtmWgt=  12.0000000   1.0078250   1.0078250   1.0078250  12.0000000  12.0000000  12.0000000  12.0000000  12.0000000  12.0000000
 NucSpn=           0           1           1           1           0           0           0           0           0           0
 AtZEff=   0.0000000   0.0000000   0.0000000   0.0000000   0.0000000   0.0000000   0.0000000   0.0000000   0.0000000   0.0000000
 NQMom=    0.0000000   0.0000000   0.0000000   0.0000000   0.0000000   0.0000000   0.0000000   0.0000000   0.0000000   0.0000000
 NMagM=    0.0000000   2.7928460   2.7928460   2.7928460   0.0000000   0.0000000   0.0000000   0.0000000   0.0000000   0.0000000

  Atom        31          32          33          34          35          36          37          38          39          40
 IAtWgt=          12           1          12           1           1           1          12          12          12          12
 AtmWgt=  12.0000000   1.0078250  12.0000000   1.0078250   1.0078250   1.0078250  12.0000000  12.0000000  12.0000000  12.0000000
 NucSpn=           0           1           0           1           1           1           0           0           0           0
 AtZEff=   0.0000000   0.0000000   0.0000000   0.0000000   0.0000000   0.0000000   0.0000000   0.0000000   0.0000000   0.0000000
 NQMom=    0.0000000   0.0000000   0.0000000   0.0000000   0.0000000   0.0000000   0.0000000   0.0000000   0.0000000   0.0000000
 NMagM=    0.0000000   2.7928460   0.0000000   2.7928460   2.7928460   2.7928460   0.0000000   0.0000000   0.0000000   0.0000000

  Atom        41          42          43          44          45          46          47          48          49          50
 IAtWgt=          12          12          12           1          12           1           1           1          14          14
 AtmWgt=  12.0000000  12.0000000  12.0000000   1.0078250  12.0000000   1.0078250   1.0078250   1.0078250  14.0030740  14.0030740
 NucSpn=           0           0           0           1           0           1           1           1           2           2
 AtZEff=   0.0000000   0.0000000   0.0000000   0.0000000   0.0000000   0.0000000   0.0000000   0.0000000   0.0000000   0.0000000
 NQMom=    0.0000000   0.0000000   0.0000000   0.0000000   0.0000000   0.0000000   0.0000000   0.0000000   2.0440000   2.0440000
 NMagM=    0.0000000   0.0000000   0.0000000   2.7928460   0.0000000   2.7928460   2.7928460   2.7928460   0.4037610   0.4037610

  Atom        51          52          53          54          55          56          57          58          59          60
 IAtWgt=          14          14          14          14          14          14          64          12          12          12
 AtmWgt=  14.0030740  14.0030740  14.0030740  14.0030740  14.0030740  14.0030740  63.9291454  12.0000000  12.0000000  12.0000000
 NucSpn=           2           2           2           2           2           2           0           0           0           0
 AtZEff=   0.0000000   0.0000000   0.0000000   0.0000000   0.0000000   0.0000000   0.0000000   0.0000000   0.0000000   0.0000000
 NQMom=    2.0440000   2.0440000   2.0440000   2.0440000   2.0440000   2.0440000   0.0000000   0.0000000   0.0000000   0.0000000
 NMagM=    0.4037610   0.4037610   0.4037610   0.4037610   0.4037610   0.4037610   0.0000000   0.0000000   0.0000000   0.0000000

  Atom        61          62          63          64          65          66          67          68          69          70
 IAtWgt=          12          12          12          12          12          12          12          12          12          14
 AtmWgt=  12.0000000  12.0000000  12.0000000  12.0000000  12.0000000  12.0000000  12.0000000  12.0000000  12.0000000  14.0030740
 NucSpn=           0           0           0           0           0           0           0           0           0           2
 AtZEff=   0.0000000   0.0000000   0.0000000   0.0000000   0.0000000   0.0000000   0.0000000   0.0000000   0.0000000   0.0000000
 NQMom=    0.0000000   0.0000000   0.0000000   0.0000000   0.0000000   0.0000000   0.0000000   0.0000000   0.0000000   2.0440000
 NMagM=    0.0000000   0.0000000   0.0000000   0.0000000   0.0000000   0.0000000   0.0000000   0.0000000   0.0000000   0.4037610

  Atom        71          72          73          74          75          76          77          78          79          80
 IAtWgt=          14          12          12          12          12          14          14          19          19          19
 AtmWgt=  14.0030740  12.0000000  12.0000000  12.0000000  12.0000000  14.0030740  14.0030740  18.9984033  18.9984033  18.9984033
 NucSpn=           2           0           0           0           0           2           2           1           1           1
 AtZEff=   0.0000000   0.0000000   0.0000000   0.0000000   0.0000000   0.0000000   0.0000000   0.0000000   0.0000000   0.0000000
 NQMom=    2.0440000   0.0000000   0.0000000   0.0000000   0.0000000   2.0440000   2.0440000   0.0000000   0.0000000   0.0000000
 NMagM=    0.4037610   0.0000000   0.0000000   0.0000000   0.0000000   0.4037610   0.4037610   2.6288670   2.6288670   2.6288670

  Atom        81          82          83
 IAtWgt=          19          19          19
 AtmWgt=  18.9984033  18.9984033  18.9984033
 NucSpn=           1           1           1
 AtZEff=   0.0000000   0.0000000   0.0000000
 NQMom=    0.0000000   0.0000000   0.0000000
 NMagM=    2.6288670   2.6288670   2.6288670
 Leave Link  101 at Wed Apr  8 17:52:54 2020, MaxMem= 1879048192 cpu:       0.5
 (Enter /system/software/linux-x86_64/gaussian/g09/A.02__pgi_8.0-6__acml/l202.exe)
 Symmetry turned off by external request.
 Stoichiometry    C48H16F6N12Zn
 Framework group  C1[X(C48H16F6N12Zn)]
 Deg. of freedom   243
 Full point group                 C1      NOp   1
                         Z-Matrix orientation:                         
 ---------------------------------------------------------------------
 Center     Atomic      Atomic             Coordinates (Angstroms)
 Number     Number       Type             X           Y           Z
 ---------------------------------------------------------------------
      1          6           0       -2.998797   -0.204793    3.999610
      2          6           0       -2.020837   -2.224928    3.999600
      3          6           0       -4.077313   -1.190641    3.999700
      4          6           0       -3.463060   -2.459329    3.999650
      5          6           0       -5.465519   -1.064641    3.999810
      6          6           0       -4.224856   -3.626502    3.999740
      7          6           0       -6.223752   -2.232172    3.999860
      8          1           0       -5.931333   -0.086669    3.999840
      9          6           0       -5.611046   -3.497480    3.999840
     10          1           0       -3.746260   -4.598253    3.999730
     11          1           0       -7.306073   -2.168429    3.999920
     12          1           0       -6.232200   -4.386106    3.999910
     13          6           0        2.224930   -2.020828    4.000030
     14          6           0        0.204794   -2.998798    3.999850
     15          6           0        2.459331   -3.463051    4.000370
     16          6           0        1.190643   -4.077304    4.000240
     17          6           0        3.626503   -4.224856    4.000750
     18          6           0        1.064644   -5.465510    4.000510
     19          6           0        3.497482   -5.611036    4.001020
     20          1           0        4.598255   -3.746250    4.000850
     21          6           0        2.232174   -6.223743    4.000900
     22          1           0        0.086680   -5.931335    4.000400
     23          1           0        4.386118   -6.232192    4.001310
     24          1           0        2.168441   -7.306065    4.001130
     25          6           0        2.020839    2.224929    3.999760
     26          6           0        2.998799    0.204793    3.999890
     27          6           0        3.463052    2.459330    3.999690
     28          6           0        4.077305    1.190642    3.999800
     29          6           0        4.224868    3.626502    3.999580
     30          6           0        5.465520    1.064632    3.999780
     31          6           0        5.611047    3.497471    3.999560
     32          1           0        3.746261    4.598254    3.999510
     33          6           0        6.223744    2.232174    3.999640
     34          1           0        5.931335    0.086670    3.999860
     35          1           0        6.232202    4.386107    3.999480
     36          1           0        7.306065    2.168430    3.999600
     37          6           0       -0.204793    2.998788    3.999820
     38          6           0       -2.224927    2.020839    3.999790
     39          6           0       -1.190641    4.077304    4.000260
     40          6           0       -2.459329    3.463051    4.000270
     41          6           0       -1.064642    5.465510    4.000690
     42          6           0       -3.626502    4.224857    4.000680
     43          6           0       -2.232172    6.223743    4.001120
     44          1           0       -0.086669    5.931334    4.000680
     45          6           0       -3.497480    5.611037    4.001100
     46          1           0       -4.598253    3.746261    4.000690
     47          1           0       -2.168429    7.306064    4.001470
     48          1           0       -4.386105    6.232202    4.001420
     49          7           0       -1.109928   -3.192613    3.999710
     50          7           0        1.109930    3.192614    3.999790
     51          7           0        3.192615   -1.109929    4.000050
     52          7           0       -3.192623    1.109930    3.999740
     53          7           0        0.871984   -1.801548    3.999680
     54          7           0        1.801549    0.871983    3.999920
     55          7           0       -1.801547   -0.871983    3.999560
     56          7           0       -0.871992    1.801549    3.999450
     57         30           0        0.000000    0.000000    3.999710
     58          6           0       -1.579828   -0.946877   -0.000003
     59          6           0       -0.230859   -0.688683   -0.000006
     60          6           0        0.230858    0.688684   -0.000007
     61          6           0       -0.777686    1.715832   -0.000007
     62          6           0       -2.100548    1.423385   -0.000003
     63          6           0        0.777686   -1.715831   -0.000006
     64          6           0        1.579828    0.946878   -0.000005
     65          6           0        2.100548   -1.423384   -0.000004
     66          6           0        2.601583   -0.071915   -0.000002
     67          6           0        3.961282    0.226940    0.000004
     68          6           0        4.493899    1.548531   -0.000018
     69          6           0        4.986970   -0.762818    0.000032
     70          7           0        5.021346    2.577704   -0.000042
     71          7           0        5.886576   -1.489434    0.000063
     72          6           0       -2.601583    0.071917    0.000000
     73          6           0       -3.961282   -0.226940    0.000006
     74          6           0       -4.493897   -1.548533   -0.000015
     75          6           0       -4.986972    0.762816    0.000035
     76          7           0       -5.021339   -2.577708   -0.000039
     77          7           0       -5.886581    1.489428    0.000065
     78          9           0        2.002612    2.206772    0.000000
     79          9           0        2.971483   -2.430666   -0.000008
     80          9           0        0.414974   -2.994748   -0.000012
     81          9           0       -0.414974    2.994750   -0.000013
     82          9           0       -2.971483    2.430668   -0.000007
     83          9           0       -2.002613   -2.206770    0.000003
 ---------------------------------------------------------------------
 Rotational constants (GHZ):      0.0482473      0.0382154      0.0304712
 Leave Link  202 at Wed Apr  8 17:52:54 2020, MaxMem= 1879048192 cpu:       0.8
 (Enter /system/software/linux-x86_64/gaussian/g09/A.02__pgi_8.0-6__acml/l301.exe)
 Standard basis: 6-31G(d) (6D, 7F)
 Ernie: Thresh=  0.10000D-02 Tol=  0.10000D-05 Strict=F.
 Integral buffers will be    131072 words long.
 Raffenetti 2 integral format.
 Two-electron integral symmetry is turned off.
  1058 basis functions,  2016 primitive gaussians,  1061 cartesian basis functions
   236 alpha electrons      236 beta electrons
       nuclear repulsion energy     11577.9750786144 Hartrees.
 IExCor=  402 DFT=T Ex+Corr=B3LYP ExCW=0 ScaHFX=  0.200000
 ScaDFX=  0.800000  0.720000  1.000000  0.810000 ScalE2=  1.000000  1.000000
 IRadAn=      5 IRanWt=     -1 IRanGd=            0 ICorTp=0
 NAtoms=   83 NActive=   83 NUniq=   83 SFac= 7.50D-01 NAtFMM=   80 NAOKFM=T Big=T
 Leave Link  301 at Wed Apr  8 17:52:54 2020, MaxMem= 1879048192 cpu:       0.8
 (Enter /system/software/linux-x86_64/gaussian/g09/A.02__pgi_8.0-6__acml/l302.exe)
 NPDir=0 NMtPBC=     1 NCelOv=     1 NCel=       1 NClECP=     1 NCelD=      1
         NCelK=      1 NCelE2=     1 NClLst=     1 CellRange=     0.0.
 One-electron integrals computed using PRISM.
